TITLE = "Blade_9505.0_pitch_28.0_AoA_5.0"
VARIABLES = "R_middle" "X_mean" "Y_mean" "Z_mean" "Tx_fR" "Ty_fR" "Tz_fR" "Ft_fR" "Fr_fR" "F1P_fR" "Mx_fR" "My_fR" "Mz_fR" 
ZONE T="Blade_9505.0_pitch_28.0_AoA_5.0", I=45, J=1, K=1, F=BLOCK
  5.207777778e-02  5.623333333e-02  6.038888889e-02  6.454444444e-02  6.870000000e-02  7.285555556e-02
  7.701111111e-02  8.116666667e-02  8.532222222e-02  8.947777778e-02  9.363333333e-02  9.778888889e-02
  1.019444444e-01  1.061000000e-01  1.102555556e-01  1.144111111e-01  1.185666667e-01  1.227222222e-01
  1.268777778e-01  1.310333333e-01  1.351888889e-01  1.393444444e-01  1.435000000e-01  1.476555556e-01
  1.518111111e-01  1.559666667e-01  1.601222222e-01  1.642777778e-01  1.684333333e-01  1.725888889e-01
  1.767444444e-01  1.809000000e-01  1.850555556e-01  1.892111111e-01  1.933666667e-01  1.975222222e-01
  2.016777778e-01  2.058333333e-01  2.099888889e-01  2.141444444e-01  2.183000000e-01  2.224555556e-01
  2.266111111e-01  2.307666667e-01  2.349222222e-01
 -1.427351208e-03 -1.862627596e-03 -2.445875587e-03 -3.160021515e-03 -3.987048828e-03 -4.911391975e-03
 -5.935350585e-03 -7.016883493e-03 -8.137397678e-03 -9.269732738e-03 -1.037613618e-02 -1.141120556e-02
 -1.228755230e-02 -1.288684742e-02 -1.312804597e-02 -1.295481137e-02 -1.240612072e-02 -1.144984831e-02
 -1.027889721e-02 -9.045226712e-03 -7.798657461e-03 -6.539657603e-03 -5.267138746e-03 -3.986656216e-03
 -2.696083846e-03 -1.395412871e-03 -8.559989191e-05  1.232543337e-03  2.557360618e-03  3.886256530e-03
  5.221112066e-03  6.561577560e-03  7.907082803e-03  9.256096002e-03  1.060719668e-02  1.196100143e-02
  1.331760951e-02  1.467701357e-02  1.603806985e-02  1.739958105e-02  1.850242254e-02  0.000000000e+00
  0.000000000e+00  0.000000000e+00  0.000000000e+00
 -7.805943002e-04 -1.047149379e-03 -1.421194559e-03 -1.876836966e-03 -2.382235185e-03 -2.919271429e-03
 -3.482680412e-03 -4.046355213e-03 -4.608991314e-03 -5.166130533e-03 -5.709656799e-03 -6.221276170e-03
 -6.657378834e-03 -6.938692137e-03 -7.038565660e-03 -6.934734820e-03 -6.627866110e-03 -6.103925729e-03
 -5.492394184e-03 -4.844668456e-03 -4.191847863e-03 -3.533265255e-03 -2.867483294e-03 -2.199648612e-03
 -1.526913074e-03 -8.489449750e-04 -1.659831310e-04  5.214785368e-04  1.213639939e-03  1.907432145e-03
  2.605565706e-03  3.307597529e-03  4.013196599e-03  4.722519584e-03  5.434287571e-03  6.148484355e-03
  6.865612786e-03  7.585704851e-03  8.309240308e-03  9.034120686e-03  9.221132840e-03  0.000000000e+00
  0.000000000e+00  0.000000000e+00  0.000000000e+00
 -5.119208332e-02 -5.536952690e-02 -5.954117914e-02 -6.371709277e-02 -6.790485936e-02 -7.209603068e-02
 -7.627026052e-02 -8.043008010e-02 -8.458628381e-02 -8.873950786e-02 -9.289205238e-02 -9.703924040e-02
 -1.011824319e-01 -1.053350285e-01 -1.095058194e-01 -1.136924357e-01 -1.178904322e-01 -1.220947706e-01
 -1.262875462e-01 -1.304776650e-01 -1.346667501e-01 -1.388550640e-01 -1.430415667e-01 -1.472196842e-01
 -1.513910354e-01 -1.555625793e-01 -1.597343130e-01 -1.639062318e-01 -1.680728154e-01 -1.722327069e-01
 -1.763916732e-01 -1.805511838e-01 -1.847111609e-01 -1.888678599e-01 -1.930186975e-01 -1.971674453e-01
 -2.013167245e-01 -2.054672941e-01 -2.096155805e-01 -2.137597800e-01 -2.175936464e-01  0.000000000e+00
  0.000000000e+00  0.000000000e+00  0.000000000e+00
  7.419946514e-02 -2.485399724e-03  4.162259186e-02  1.754771742e-01  3.251368859e-01  4.934381380e-01
  6.710707976e-01  7.735804494e-01  8.195362477e-01  8.053412279e-01  7.220048452e-01  6.594637258e-01
  6.983151965e-01  7.530106559e-01  7.931958095e-01  8.164384920e-01  8.453159574e-01  8.377865367e-01
  8.446916579e-01  8.432393377e-01  8.387668761e-01  8.297298676e-01  8.160904268e-01  7.938359140e-01
  7.749324629e-01  7.512091843e-01  7.228253182e-01  6.901337441e-01  6.481318212e-01  6.077564017e-01
  5.657906259e-01  5.205727779e-01  4.723640204e-01  4.171626165e-01  3.632048378e-01  3.112889301e-01
  2.580150725e-01  2.055537795e-01  1.492732007e-01  9.912135886e-02  2.479433722e-01  0.000000000e+00
  0.000000000e+00  0.000000000e+00  0.000000000e+00
 -3.996437198e-01 -5.333862603e-02  1.522826820e+00  3.554572968e+00  5.082358281e+00  6.161597131e+00
  6.606976159e+00  6.459951816e+00  5.779994292e+00  4.509145880e+00  2.782059903e+00  9.403034859e-01
  4.811301714e-01  4.701103074e-01  4.253900021e-01  3.108522983e-01  3.297891151e-01  5.138500154e-02
  3.296580098e-02  4.602741333e-03  1.724382454e-02  2.114219792e-02  2.687765584e-02  3.326511404e-02
  4.039910739e-02  4.917580398e-02  5.971201426e-02  7.300365399e-02  8.921963240e-02  1.074328868e-01
  1.279190472e-01  1.499193812e-01  1.752829059e-01  2.058508020e-01  2.384808133e-01  2.708767272e-01
  3.053518049e-01  3.403413192e-01  3.791919809e-01  4.134961772e-01 -5.304399431e+00  0.000000000e+00
  0.000000000e+00  0.000000000e+00  0.000000000e+00
 -1.664632064e-01 -1.823458384e-01 -2.119624184e-01 -2.437517053e-01 -2.992189603e-01 -3.550775317e-01
 -3.641549440e-01 -4.154240552e-01 -4.697408687e-01 -5.196428289e-01 -5.662671611e-01 -6.152223935e-01
 -6.650670404e-01 -7.161705387e-01 -7.696675663e-01 -8.237090603e-01 -8.757870577e-01 -9.341866115e-01
 -9.901296519e-01 -1.042314454e+00 -1.087253447e+00 -1.125819176e+00 -1.158774724e+00 -1.181883082e+00
 -1.202243828e+00 -1.213112904e+00 -1.214060115e+00 -1.204880655e+00 -1.180661743e+00 -1.150068682e+00
 -1.110245126e+00 -1.058682039e+00 -9.951022336e-01 -9.131103451e-01 -8.242048946e-01 -7.300193957e-01
 -6.249886815e-01 -5.150726879e-01 -3.916375396e-01 -2.796553607e-01 -1.478597452e-01  0.000000000e+00
  0.000000000e+00  0.000000000e+00  0.000000000e+00
  3.970592744e-01  4.988117905e-02 -1.527451114e+00 -3.560208705e+00 -5.089724358e+00 -6.170918017e+00
 -6.616709836e+00 -6.472665415e+00 -5.796990544e+00 -4.531724868e+00 -2.811559759e+00 -9.777386711e-01
 -5.237563190e-01 -5.161676575e-01 -4.738830572e-01 -3.604250503e-01 -3.784287661e-01 -9.796576491e-02
 -7.595590546e-02 -4.327431875e-02 -5.106264369e-02 -4.977335153e-02 -5.009697259e-02 -5.091826154e-02
 -5.252213302e-02 -5.579524203e-02 -6.097353558e-02 -6.916989627e-02 -8.069206764e-02 -9.469037051e-02
 -1.115069213e-01 -1.305030169e-01 -1.536261866e-01 -1.829618775e-01 -2.151907119e-01 -2.479911980e-01
 -2.838724478e-01 -3.211064408e-01 -3.633819321e-01 -4.013188648e-01  5.305903164e+00  0.000000000e+00
  0.000000000e+00  0.000000000e+00  0.000000000e+00
  1.725370525e-01  1.833217985e-01  1.755639024e-01  1.389886860e-01  1.208455563e-01  1.054991981e-01
  6.239977303e-02  9.031625216e-02  1.545675715e-01  2.567001316e-01  3.945218966e-01  5.538017064e-01
  6.320440874e-01  6.837213548e-01  7.407966419e-01  8.032555948e-01  8.558945612e-01  9.304556692e-01
  9.877622042e-01  1.041425917e+00  1.086190598e+00  1.124917074e+00  1.158003265e+00  1.181254214e+00
  1.201775243e+00  1.212826479e+00  1.213997412e+00  1.205106822e+00  1.181275194e+00  1.151187879e+00
  1.112013367e+00  1.061250415e+00  9.986748957e-01  9.179705913e-01  8.305900097e-01  7.381076379e-01
  6.350330780e-01  5.272786180e-01  4.063497167e-01  2.968659261e-01 -7.685987331e-02  0.000000000e+00
  0.000000000e+00  0.000000000e+00  0.000000000e+00
  4.329262083e-01  1.899868780e-01  1.537507590e+00  3.562920695e+00  5.091158776e+00  6.171819768e+00
  6.617004064e+00  6.473295498e+00  5.799050828e+00  4.538989451e+00  2.839104754e+00  1.123685561e+00
  8.208534645e-01  8.566819373e-01  8.794002596e-01  8.804122713e-01  9.358225424e-01  9.355987620e-01
  9.906782886e-01  1.042324617e+00  1.087390182e+00  1.126017677e+00  1.159086394e+00  1.182351127e+00
  1.202922404e+00  1.214109211e+00  1.215527658e+00  1.207090273e+00  1.184027995e+00  1.155075668e+00
  1.117590051e+00  1.069244350e+00  1.010421968e+00  9.360262043e-01  8.580132905e-01  7.786543003e-01
  6.955936865e-01  6.173589615e-01  5.451298202e-01  4.991855460e-01  5.306459821e+00  0.000000000e+00
  0.000000000e+00  0.000000000e+00  0.000000000e+00
 -2.054483222e-02 -2.581412833e-03  9.256443515e-02  2.292025692e-01  3.481441744e-01  4.481370286e-01
  5.094328209e-01  5.256019570e-01  4.954085098e-01  4.071206681e-01  2.664106114e-01  1.003426676e-01
  5.885712516e-02  6.018067721e-02  5.785175436e-02  4.705491625e-02  5.109452510e-02  1.906952263e-02
  1.752631262e-02  1.441299279e-02  1.635880005e-02  1.703848322e-02  1.788827295e-02  1.883008017e-02
  1.966647078e-02  2.065231205e-02  2.184918964e-02  2.346516188e-02  2.564836086e-02  2.815389094e-02
  3.112026476e-02  3.449455678e-02  3.866046286e-02  4.406203589e-02  5.014081388e-02  5.650093534e-02
  6.368107632e-02  7.139176941e-02  8.032266271e-02  8.863775171e-02 -1.161231744e+00  0.000000000e+00
  0.000000000e+00  0.000000000e+00  0.000000000e+00
 -2.621244549e-01 -2.670524010e-01 -2.612677422e-01 -2.413343202e-01 -2.121339572e-01 -1.726740944e-01
 -1.262037015e-01 -8.537882003e-02 -4.998871239e-02 -2.379820781e-02 -1.093081746e-02 -4.530084822e-03
  6.381516182e-03  1.839234150e-02  2.920290370e-02  3.827325099e-02  4.776274337e-02  5.297414041e-02
  5.894143150e-02  6.347750495e-02  6.736004528e-02  7.039047229e-02  7.257859295e-02  7.337421447e-02
  7.413885903e-02  7.387816584e-02  7.260068283e-02  7.035280326e-02  6.640427193e-02  6.230079544e-02
  5.763545791e-02  5.218794590e-02  4.601715410e-02  3.848011355e-02  3.096308658e-02  2.365221844e-02
  1.603071762e-02  8.483324788e-03  2.030760752e-04 -7.178892007e-03  3.631880480e-02  0.000000000e+00
  0.000000000e+00  0.000000000e+00  0.000000000e+00
  2.753476389e-01  2.858725697e-01  2.863266732e-01  2.734885498e-01  2.488002467e-01  2.135230851e-01
  1.727397181e-01  1.349994673e-01  1.040794243e-01  8.502657231e-02  8.272272283e-02  8.964276302e-02
  8.694424152e-02  7.958531268e-02  7.244581595e-02  6.700085668e-02  6.029747097e-02  5.707112455e-02
  5.559927782e-02  5.450206178e-02  5.328470279e-02  5.188936229e-02  5.034521748e-02  4.858084320e-02
  4.692280604e-02  4.517575024e-02  4.336380567e-02  4.152025526e-02  3.952439031e-02  3.765939109e-02
  3.586027711e-02  3.411714551e-02  3.247453973e-02  3.089571943e-02  2.948680170e-02  2.827125308e-02
  2.724894174e-02  2.641784501e-02  2.572041917e-02  2.511249117e-02 -8.988441746e-02  0.000000000e+00
  0.000000000e+00  0.000000000e+00  0.000000000e+00